316
 energy: -72.193713946546 gnorm: 0.000852278157 xtb: 6.5.1 (conda-forge)
H            9.63383939430777       10.69659752428693       23.66796646158931
H           11.82012084204590       14.70460837306365       24.50148163942726
H           10.40179263174857       12.74354292901999       24.92326984374862
H           12.82478088792913        8.09326676379357       26.31298767632524
H           14.04980162461319        7.27838589686547       30.22695852045027
H           16.03703727363003        6.68530044230533       28.88946395430945
H           16.60329553988922        8.00960818632352       26.88701626346759
H           15.99933877592082        9.87547954598102       25.30404858549094
H           12.65375884138687        9.20120817793027       29.52043852207837
H            8.55512181078332        9.88229655688631       29.27269804408139
H            9.19596285650739       11.08338951757744       31.33095433355628
H           11.37538404818749       12.23262705092438       31.44832173746007
H           13.58415483328675       12.76618116118154       30.35647356843543
H           10.12797131943685        9.85380475848361       27.35681072134338
H            7.60604191486964       24.69560202288179       29.33342370859248
H            6.43901231948144       23.45188097079887       27.54995594103351
H            7.72544551102654       22.53324456475909       25.65627579051960
H            9.94111339874003       22.29866417319896       24.47689705787400
H           13.34367982258795       18.96271507231626       15.48332430173879
H           14.00730606438416       20.45464259597286       13.63456256038508
H           16.39863431537254       20.90055594189598       13.21986189048096
H            9.70376052332748       25.78861016846546       25.89982820397979
H           15.12103892716615       25.70033812211131       25.63106082074959
H           13.99402271789099       27.53025091104280       24.31408346411613
H            9.76872244522656        8.25491915982246       23.34508545378145
H           11.90725474379598       28.67462397507455       23.66595577714179
H           12.27760613811743       27.08615067488450       27.70002638985000
H           12.49579325629810       22.29342535504900       30.23192945729431
H           12.85799092482942       24.31575599497290       31.69286722128115
H           12.93941405218732       26.77225193917413       31.89966155464816
H           12.65025399576340       28.17951065195310       29.89345967631464
H           10.06152687619061       24.99943653037261       29.17982840024970
H            9.73783164831531       27.80403066873581       24.45664840682113
H           11.37565382488347        6.93208344417585       24.67078138064062
H           21.40434215199818       20.87308172503384       25.51044256644905
H           20.52645197672668       20.26174903540456       23.32369331988411
H           15.13537071780150       19.52741760877731       18.16221289361088
H           13.64417558695737       24.28320521363941       24.15188365024953
H           11.61446776918475       20.55296381325757       24.08586462327331
H           13.01508591470926       19.84888434709178       22.22378890910616
H           14.08948409097332       17.42179095741199       19.80571390262707
H           13.63925606438671       15.82285916752870       21.58563820689014
H           16.92432790561066       21.82185042781706       22.07566613285022
H           17.27083483095226       14.95697285505114       18.44904050885922
H           16.79139295985349       12.13644823927736       24.79910167783424
H           17.13103677547529       13.46835165384872       22.79037538767125
H           13.86090179365058       20.51485041164747       29.22549182037730
H           13.62653305504521       18.12064739660202       28.85439237257339
H           10.53827854454847       21.19870748002990       26.67069775041648
H           12.04785824355513       13.81169727732778       28.64724729780996
H           12.62618539196223       12.02527849776733       23.97451741039085
H           14.03591548047147       17.40905660035360       17.34524975584581
H           18.45753152535472       20.86476481414878       20.44518216145073
H           14.68616742503291       14.69895717291790       29.32518206680939
H           23.66386430885941       17.27692290875306       25.56485723076673
H           20.10939628526108       19.12354640648477       18.88777057326886
H           19.22915890660111       15.31738790619852       20.55406576046716
H           20.43066152645284       15.94941222226043       22.57493216517017
H           19.24849288581350       18.29555285643228       29.98760142366331
H           17.38338027439420       19.74335081572526       29.39543316575147
H           16.93008922176345       15.64268140436141       29.32027392253272
H           21.93202673735871       21.13987550633516       28.33034276369273
H           16.22193893204561       23.56319332616704       25.16209178328323
H           18.18215276625920       22.38045970369592       25.98843027011350
H           21.62010825309151       15.29584390986273       25.89954876232756
H           19.51267932255656       14.10027762466905       26.13569168296942
H           21.41257087373448       16.39296077170112       29.99741923368744
H           16.19395881979095       11.20292055825398       27.44298161487901
H           14.47256099973294       23.28304691834003       29.02207538206689
H           18.09305422784105       19.82875040438414       14.67783321332210
H           11.73566674369750       17.07695711531136       25.03876087211018
H           24.87564580829941       19.32914335043421       31.30968443077192
H           19.75674679492784       16.87882540100332       14.93224545220405
H           21.20252386589423       18.43618690842784       31.47121258171594
H           22.46080591502340       16.91647985232852       33.04146121308722
H           24.48967999285850       15.59543342824355       33.51275398002849
H           26.26006537504177       15.41942580845116       31.80275333145802
H           23.60767275750494       21.39284739646336       26.45565026875531
H           26.42154590129576       19.67467577205946       28.30928384099042
H           28.44213712667452       18.84076242970273       27.13987089848502
H           16.58702722414382       14.74002842678371       13.24382343429816
H           17.99808503733812       12.96607654455039       14.21915440655456
H           19.18459662959522       13.37579902245352       16.34256941773581
H           19.78827689382881       14.98037336022300       18.19202935617816
H           28.34700034429421       16.65823942368005       25.99243791365800
H           26.25604488082088       15.35033563290835       26.02295531041819
H           23.88255661703623       15.11122779741609       26.84020444770785
H           18.98439045912255       21.23133674991445       18.07663074879895
H           21.05038970485338       21.28176323427649       16.63330642956534
H           16.39555343753453       16.91120793740817       14.42525139848806
H           25.70967565063966       21.57030659771864       31.96370987799870
H           25.55692451548234       23.42508686387820       30.34325327269228
H           22.43268790244771       20.19723994597101       14.90234633822564
H           21.79246713404573       17.97594167097536       14.03922639904576
H           24.57978165027937       23.02438726697930       28.11403341325364
H           25.96041718091907       16.58597026418071       29.63590931149862
C           18.38206197289180       20.02249764468319       29.10346264204809
C           12.24092144386268       21.05466705425597       27.93006877362214
C           11.26128703315957       20.52969647805058       27.09226804222353
C           25.21644294545978       16.64572509071861       30.40686150783772
C           24.38331407645003       16.10991595076069       32.57185997089411
C           25.37634813342869       16.00534530619054       31.61151577771545
C           11.99270728272540       14.06681162878787       26.54066978377258
C           11.88466629763423       15.02315208649543       25.52836217395230
C           11.86740414106107       16.36014934154589       25.83217481831462
C           21.10125952294880       15.30710200335202       26.84338138038172
C           19.89947258225726       14.65941569778709       26.97139977037059
C           19.16976036773044       14.67163186178789       28.17597811850472
C           19.75230217059661       15.34201764893239       29.26574213503343
C           12.05249327302166       14.52970466421139       27.85194539459128
C           17.33774817314444       22.52424035788793       26.64188545321612
C           16.24795853565096       23.21786308266538       26.18203684495113
C           15.16367639193264       23.47480676779848       27.02436519940226
C           19.43291726920333       19.21891497884869       29.46446171056521
C           23.12636599981160       17.51428285926395       31.09659817158661
C           21.99858442643895       18.30521447590570       30.75861888850075
C           18.57043953254351       21.22303190016359       28.39139212915677
C           19.89687096967848       21.59041811241439       28.10492699029459
C           20.96027711335407       15.95294881838053       29.13151175830266
C           23.25919892347585       16.85696261401406       32.32271094059158
C           20.93050284503502       20.79820514345301       28.49799975143345
C           12.06809919454668       15.85292188893356       28.16746419183378
C           15.06039234809654       17.65787322150137       17.12793330191423
C           11.97991518812420       16.82619560429121       27.15653683640668
C           17.40379912129128       22.02417108409252       27.95693471851973
C           16.31420092259821       22.30555112724680       28.79964348403050
C           15.25446235443439       23.02252411334702       28.33754447799550
C           20.74476625450649       19.58446432050581       29.15355713178630
C           20.73582966158865       18.84658345453322       20.86907818886661
C           16.34074467388917       12.20618328987834       27.78887078521788
C           11.15379859923841       19.20013971573332       26.82507151448436
C           14.23891014093188       21.61205757614975       22.19708358010906
C           14.38736197456292       22.88278516953295       22.77986015946300
C           13.55401756969451       23.28342728930604       23.77764119892936
C           12.55586930585643       22.46695827819071       24.30148220556691
C           12.38553114664323       21.20916929267867       23.71824661034247
C           13.19640113538679       20.80319133020273       22.68967825302074
C           16.12932116440260       13.20297209743932       23.08501886735552
C           15.94453464682642       12.42658397292020       24.20001515573715
C           16.91050574559061       20.06886947870931       19.19293553444623
C           14.66299951025970       12.01409007195874       24.57247162871520
C           26.42122273345409       18.72663963573836       27.80662520250945
C           14.71370699042103       16.55058268399812       19.91317256764555
C           14.48110974395633       15.66335606678896       20.93257576213080
C           15.28933555011748       14.52721864479691       21.13211569974511
C           16.32412524351107       14.31223680756354       20.20508203370333
C           16.52197650840981       15.18495812369411       19.18059836332302
C           15.76074256480236       16.33816697768656       19.01322704872039
C           13.60502148957642       12.40161379502541       23.75521269005685
C           25.21057174047748       16.77787011562388       27.22794746891230
C           21.65811628536193       15.98914957215688       27.92775044347303
C           15.52908347416292       19.96625553836323       19.05683349102756
C           15.13402811307948       21.10717306205433       21.13150565610761
C           12.02490637794462       18.27967061008154       27.43407618717300
C           12.98407207590153       18.80287838430769       28.32291540868565
C           13.09951095611105       20.14895350426467       28.55732134804965
C           17.84219492115726       14.02087156439165       28.25006106649471
C           17.58845052234458       12.74371231654884       27.72017395591774
C           20.30514237435199       16.67305633199391       21.78676269190817
C           15.25483602405693       12.88523737227095       28.33394091305654
C           15.49782738107916       14.14717973085400       28.88135816322756
C           14.65874520973521       20.44117338929894       19.98824629879693
C           16.75698671357285       14.68920275696451       28.84951631391185
C           25.21504398834395       22.44049798261578       30.06941122102176
C           25.29677970464628       21.40212534298661       30.98285747789776
C           27.53745428154464       18.25593638756662       27.15908881293400
C           27.48317349315999       17.02792070464267       26.52007928953930
C           26.32817432985502       16.28695804722056       26.54748022481550
C           23.97958537044697       16.07749760627274       27.30453056218033
C           17.39489987978251       20.74883287689561       20.31283688005767
C           16.52942494908378       21.26101441123560       21.24491875207970
C           24.68832888261505       22.22079640154758       28.82118629082284
C           19.65428287342609       16.30360719969124       20.63770046098663
C           15.05072072544701       13.63504312503826       22.28910085924516
C           20.11584184409205       18.45389174526388       19.72385995007757
C           13.52079418644762        8.90834799882746       28.96019119147379
C           13.04123861977202       27.18748347800306       24.67780112146050
C           18.59351402233918       14.14852734629485       15.88311823691076
C           17.91674215136894       13.92152458979429       14.71082510956016
C           17.11983889335923       14.91407693366405       14.16397066052768
C            9.50979951856030       10.37745925941493       29.33787220700304
C            9.87396509807731       11.04816850079941       30.49410074347731
C           11.09165379966576       11.67659936874435       30.57204834097194
C           11.87506221006991       27.80917097330716       24.30720565783937
C           13.24029126054801       12.24474622234069       29.47979993350919
C           11.96219071210491       11.63005749695276       29.47977899363652
C           19.53098599331045       17.19985377148373       19.57330047804318
C           10.37396473529460       10.36015568273735       28.27032265548668
C           10.65563578195886       27.31936036850316       24.74577525364363
C           14.90632280939552        9.29964493473404       27.08270281205473
C           20.06219662883026       17.84808417375386       15.27671767247309
C           21.18686919779362       18.46429770076100       14.78460547292414
C            7.50383806190646       23.60684049843573       27.49094877652466
C            8.21100785685627       23.10670951096755       26.42629141496370
C           21.54132397377724       19.71371462423988       15.26691093538391
C           10.39641293705487       22.83007913222776       25.29482401803971
C            9.59255791160715       23.30727795023513       26.36137566754337
C           12.40044343365397       26.50778431902627       28.59548026196869
C            9.51841349861454       24.47056615835262       28.42040066449691
C           12.47451785309242       24.36087498851633       29.58714600624787
C           19.61751492086945       19.69225938875557       16.69065579507316
C           18.76641269396319       20.25676179879756       17.67488529289235
C           12.39446221688941       22.95845115606761       29.39156814335684
C           20.76693602227848       20.33088642312865       16.21726890377914
C           12.60396347754581       27.10593055516376       29.81518772312078
C            8.15741516672317       24.30099189311719       28.49610038736129
C           12.76086523735701       26.31378283386681       30.94090548583391
C           15.15740398130408       10.09717009962013       25.93706009268319
C           10.30398236692638       10.09829894857069       24.25997702385742
C           11.30044179633936        7.99734910974018       24.81360426807117
C           21.68544497760141       19.93376865690677       25.06435319314140
C           21.16921192662010       19.57306189316462       23.84632384009860
C           21.48235844582126       18.34198658748529       23.23796464690686
C           22.39101147258003       17.51059158522806       23.91554535436147
C           15.36170026959801       18.54222849230708       16.06079896751292
C           10.39560882158092        8.74151899746325       24.07412158636186
C           22.91938569004588       17.89717348963604       25.10794236832875
C           23.68250283427973       20.63004272570341       27.21142263079263
C           16.09934485076135       20.24034327567168       14.01697172694132
C           14.75763430994907       19.98448618472692       14.24874914811168
C           14.38182720463801       19.14267915555424       15.26557251664913
C           20.84867147558841       17.96147134842894       21.95527641038918
C           13.76846466575916       13.19728109471157       22.66395271246994
C           22.57072366929063       19.08859150793978       25.73753729322931
C           15.72130965531399        8.22981096087369       27.46250887283317
C           12.70044937289775       24.94664630116866       30.83572507004380
C           11.09305979077673       12.11619253924857       25.45929279441585
C           14.14514476721491       25.35799207189497       25.92962149294662
C           15.40977841689267        7.50781916121219       28.58742717594969
C           14.29755228880976        7.84204265142227       29.34279153189986
C           12.98942293199324       26.06115708775859       25.50347848248045
C           18.47678915013871       15.38844016547188       16.51724823457182
C           10.62782175219704       26.20098650214030       25.54279658499290
C           19.14192694128687       15.70601088595092       17.72912051579527
C           24.24022938999709       20.94241915642391       28.47758307828719
C           12.10976006219690        8.63365038443238       25.72292802308832
C           24.83380614325023       20.15808070439906       30.62958500453353
C           17.04439392644034       19.65315660368059       14.82252627670390
C           11.12531760541831       10.72158169729841       25.20336716502946
C           17.00556901810771       16.11867516886005       14.81407278380337
N           16.66885962790531       18.83742191773679       15.81486233352478
N           12.34783094910647       25.17379785950810       28.50120637511507
N           11.76957147434537       25.59802211010526       25.89521295781250
N           14.04275936081816       24.23651114070338       26.62269445820509
N           25.29737275022331       18.00007227624890       27.82359818892285
N           11.55741804230238       10.97966674971258       28.35319504882011
N           14.42018415014702       11.16301235588185       25.67444662889354
N           21.86953284352683       18.82536582981883       29.54980055566724
N           11.95507351477644       12.67590192928483       26.29125841809012
N           12.01685871131502        9.95771389398953       25.89459035979088
N           17.66510791298584       16.32966513861322       15.95939043531671
N           24.11472672255694       17.36787850739280       30.17042974535669
N           12.27647024132838       22.44582707019739       28.17836168356535
N           13.83479799405807        9.61006671317960       27.86464621442287
N           18.92289995723365       16.85574356501950       18.34448481920059
N           13.99243943705576       12.25206110830014       28.39232938911871
N           16.01515865049767       17.18936361290693       17.91360651383622
N           23.17742063925626       19.43269271017287       26.96703067724765
N           11.71186322730773       22.96165389504623       25.32174145541996
N           10.20087239203739       23.97515918972979       27.38114460937748
N           22.91804940239443       16.62739039653640       27.86951950119362
N           19.31598772729298       18.45460301601247       16.20759315365728
N           17.75262998473151       19.56948195264283       18.17337964703652
N           24.31666261121427       19.95406970906814       29.41211684480298
O           11.96375104535946       14.93390794449250       22.43823535375800
O            9.15516912331766       17.60678143170656       26.12577110670558
O            8.97110846540693       20.07044724153205       25.66301733395290
O           10.65041642841476       18.73649841257134       24.40555717932056
O           11.24314026602471       12.55495034912367       22.37682456882487
O           11.31404307285467       17.25966686458342       30.28280325648452
O           11.84609523393845       14.82019754042916       30.56730260845303
O           13.68992765497766       16.39312622737543       30.01081983490348
O           12.44837845758911       13.50939108548560       20.38788572626808
O           19.60930518252522       24.19076917886632       27.67744441824470
O           18.08043607314193       12.96175628199349       18.80346713792813
O           23.22993645064135       15.96851295437367       21.92894167546676
O           24.21108903917332       15.64932451514369       24.22117959324632
O           21.82432965668063       15.06175067857376       23.84370464869258
O           20.20909856568921       21.22117527587891       21.50568711847220
O           21.34027504329456       20.87240432812473       19.31906359236392
O           22.66725497639016       20.57301216140410       21.43132867460649
O           21.90947770867156       23.18371696246146       27.57020427894112
O           20.25124236581737       22.57656178055981       25.81960117053320
O           15.63788549583772       20.40434245238660       30.30011030437933
O           15.02088272373161       22.69542034533909       31.04578448988299
O           18.48173047523105       13.49007190316776       21.20006498877984
O           18.45167807334622       14.22452809235433       31.28690437838668
O           20.24061429977471       15.92157902578374       31.77525167340217
O           18.14415253361962       16.67198094095300       30.66882935342540
O           17.42648645112419       21.98239633703405       31.18306941128996
O           18.73523906801603       12.26364906707406       25.53475238439431
O           18.10967519994616       10.30000630151516       26.92482030842868
O           20.03862473573871       11.73687791000785       27.65471732753271
O           16.77159483686623       11.72262644175891       20.55532320043790
O           12.15508315770573       21.30626513981327       19.91463416555556
O           12.97115033893648       19.77367800392543       18.09626707613064
O           15.75006054020589       24.14331677484805       20.88831045615396
O           12.73223857298117       18.87833761219504       20.40316304133555
O           15.07794698715566       25.40673683365028       22.95335756475686
O           16.76929865205585       23.59432379573902       23.15340287355475
S           22.98888236544064       15.87884769972313       23.39369809155445
S           17.52478661454423       12.95156230273198       20.18985142408751
S           12.22253640108702       16.12929465763978       29.95444648196617
S           21.33107811921675       20.55875295366589       20.77924960932214
S           12.19223008816418       13.58148939665859       21.85091176207476
S           20.46378380401147       23.06558488964711       27.21324355262136
S           15.62508849246205       24.14515358381656       22.37009080449536
S           16.10236122042512       21.80311296582346       30.53070745331824
S            9.82371659293987       18.84406668390600       25.64291387668233
S           12.93182305860105       20.09002024649100       19.55567135231519
S           19.06829088104484       15.53139686738132       30.93575544405310
S           18.76692965169742       11.64081804558740       26.89024849494112
Fe          17.71448762510727       17.87264433392986       17.12982769409281
Fe          12.99080035803076       11.15866121696212       27.06190324849219
Fe          12.09320021906725       24.01710214507339       26.96764714267237
Fe          23.56132957132567       18.36380825130629       28.60371837688253
